LAMMPS (8 Apr 2021)
# Diffusion - Migration - Potential - Reaction Modeling
# Cycling
# 2/17/21
# Andrew Cannon

log 		${dname}/log.lammps
log 		/projectnb/ryanlab/mmorey/InterfacialPaper/interfacialresults/ECSFIGS/6um_7996448/log.lammps
